Compound,CAS,RI,RI_lab_lit,Source,density_rda_load,density_rda_corr,density_corr_pval,damage_rda_load,damage_rda_corr,damage_corr_pval
Methyl pyruvate,600-22-6,815.8141083810731,NA,NA,-0.0014492197786459167,-0.15633630245217875,0.5355940194721043,-0.03051402415395665,-0.23624801500970063,0.3452653775717145
Methyl salicylate,119-36-8,1199.2616299088927,1198,standard,-0.012896798582231826,-0.11372300584821061,0.65320792289515,-0.13985696872593778,-0.4763562138665549,0.0456624426864312
β-Myrcene,123-35-3,990.04189655598,990,NIST,-0.15437867384932855,-0.648402108909647,0.0036078376742128657,-0.06672321096050121,-0.2529583448694141,0.311175279813908
Decanoic acid,334-48-5,1370.5003313217621,1366,standard,-0.02654993734107829,0.08788085571038445,0.7287778898641937,-0.1465749637484929,-0.42086938020380166,0.0819902421684715
Hexadecanoic acid,57-10-3,1971.8488922596953,1958,standard,-0.0036962156169882965,0.15504881529443026,0.539000937933919,-0.02115127897156943,-0.21697961826836645,0.3871215263331629
Naphthalene,91-20-3,1187.9077757639407,1186,Phys Chem,-0.03401719559132711,-0.007660569404062441,0.9759330982642691,0.04353745908740292,0.051252978962961375,0.839940963470423
1-Nonanal,124-19-6,1106.7965766464197,1104,standard,0.02777326575438446,0.20874355404543726,0.4058269269832794,-0.10704077894510476,-0.44392971989308844,0.06496379598436303
Nonanoic acid,112-05-0,1276.9285960004706,1270,standard,0.04427167900794458,0.3360350291799144,0.1727674631764791,-0.09911120945754472,-0.32314616397124374,0.19087508160757435
o-Hydroxybiphenyl,90-43-7,1524.0252151448362,NA,NA,-0.04391012038791942,-0.15341302366482884,0.5433436161153216,-0.09738557779973502,-0.4889818835442908,0.039463736939802145
(E)-β-Ocimene,3379-61-1,1050.763629993134,1044,Adams,-0.19518110166448369,-0.7512263242618842,3.2612854485431154e-4,0.002210314424277031,-0.09678698854202843,0.7024230567276293
(Z)-β-Ocimene,3338-55-4,1039.8575634460826,1036,NIST,-0.14868196677230855,-0.6062343483907408,0.007652522546881437,0.08505941941735233,0.19926885509736303,0.4279345223423231
"(E,E)-Allo-ocimene",3016-19-1,1131.9966390085888,1143,NIST,-0.17514062247094092,-0.6839932379818335,0.0017457811458015929,0.038089011932446445,0.03524556738681137,0.8895755468196431
1-Octadecanol,112-92-5,2087.6799509625093,2077,Adams,0.009186914423473195,0.18023875264224493,0.4741860340820323,-0.09640087902440034,-0.2923164685427794,0.23915962039859867
n-Octanal,124-13-0,1005.5576522782186,1002,standard,0.0767295260278146,0.4295190238370037,0.07526014623780007,-0.060506549763677135,-0.3038731186980736,0.2202296039424628
4-Methyl-octane,2216-34-4,865.4169864263973,NA,NA,0.031471594158631315,0.13074674346018864,0.6050744575609915,0.07271745136985754,0.301999124391307,0.22323123280546203
Octanoic acid,124-07-2,1179.7468456974789,1174,standard,0.07878644711756352,0.48828231670998684,0.03978934425737338,-0.010415591789790169,0.1583784048974604,0.5302104323614159
1-Octen-3-ol,3391-86-4,982.1447241196698,978,standard,0.08607182070949142,0.4932988174355576,0.03749934895606411,-0.10548762066185353,-0.3152499420693058,0.20256899393719446
1-Octen-3-one,4312-99-6,981.022892935856,978,J Phys Chem,0.03679781541219353,0.2917876613317247,0.24004981573282885,-0.05935060793045665,-0.27326110297387696,0.2725680269025282
p-Xylene,106-42-3,870.5748057972648,867,standard,-0.11534724149990382,-0.4933761210277159,0.03746486988701757,0.032251560954329864,0.15891309345137428,0.5288049467744311
1-Nitropentane,628-05-7,903.759052317722,NA,NA,0.030022458653093567,0.14699088715752492,0.5605432501260763,-0.03910215559473102,-0.196976085721831,0.4333775816181271
Pentanoic acid,109-52-4,897.9450659334012,893,NIST,-0.01288357121574931,0.23196980991062321,0.3543252532694945,-0.013315710071274868,0.09216962232760355,0.7160484855317635
2-Pentyl furan,3777-69-3,994.4731011151445,984,Adams,0.02117544890455442,0.22671801013338241,0.3656300396330743,-0.09686171768200094,-0.3693761771743611,0.1314092730100695
Phenol,108-95-2,990.5576823046138,981,standard,0.04190752033070085,0.303047938331234,0.22154808180266514,-0.022726940298900298,-0.19220889924536183,0.44480967500622737
"2,4-Di-tert-butylphenol",96-76-4,1516.7935969746836,1513,NIST,-0.04392778859584837,-0.15447332104411202,0.5405269603385505,-0.11961388058073766,-0.32788946201512953,0.18407061518631132
p-tert-Butylphenol,98-54-4,1287.8952742045428,NA,NA,0.007525627773999245,-0.004562426409809427,0.9856651425673202,0.009612146130891128,-0.022012739009057827,0.930912130117305
Phenylethyl acetate,103-45-7,1262.0143222499428,1245,NIST,-0.03677043053752388,-0.3995499045750928,0.10044303518447013,-0.08102254637516319,-0.32893330856130215,0.18259522532075426
Phenethyl alcohol,60-12-8,1119.1134632020712,1109,NIST,-0.012629074202786344,-0.09309736750804179,0.7133040825556782,-0.2081986058663242,-0.7127353238346008,9.013350960948457e-4
α-Pinene,80-56-8,936.1134689746543,933,standard,-0.03288672054398266,-0.08979234753344244,0.7230958661832931,-0.03857834864538008,-0.0062888045998887,0.9802418342820265
Isobutyric acid,79-31-2,794.9037886863881,785,NIST,0.051191742327454305,0.20028773765248814,0.4255272685415208,0.026698041311569845,-0.0018856795350149199,0.9940750746426958
"(3-hydroxy-2,4,4-trimethylpentyl) 2-methylpropanoate",74367-34-3,1379.8585224687824,1387,NIST,-0.0949918167687471,-0.3921384460301101,0.10750692492531527,-0.12220118614052075,-0.5792947706777516,0.01175593820804445
2-Ethylhexyl-salicylate,118-60-5,1814.651498023985,1811,standard,-0.0030840937567919607,-0.05050089337517946,0.8422615963373015,0.003834298849387812,0.1562363593973855,0.5358581353768901
Styrene,100-42-5,894.2920018699731,895,NIST,0.04728355160040575,0.11408318915608495,0.6521750602679035,0.013973214740843846,-0.08988440311765802,0.722822570324457
4-Terpineol,562-74-3,1181.9179012143152,1181,standard,0.001867206402960202,0.03685397192814151,0.8845675983287524,-0.04667384344962029,-0.07080773344459823,0.7800951701830376
ɣ-Terpinene,99-85-4,1061.6024645688071,1060,standard,-0.07914608392962307,-0.23936459518595038,0.3387502568484604,-0.026929690610906176,0.06404172164121114,0.8006866910196384
Tetradecanoic acid,544-63-8,1763.8730316931337,1759,standard,0.029004050593172827,0.1726073832333488,0.4934030370509559,-0.06189185625910348,-0.2706347653632463,0.27738741036453574
Tetradecanol,112-72-1,1680.5341216211148,1676,NIST,-0.030538842361749433,-0.044901254460094873,0.8595775200426763,-0.023061264164431078,-0.07454314095201606,0.7687853954433493
trans-α-Bergamotene,13474-59-4,1444.4661452342605,1433,NIST,-0.18522930202371876,-0.6460840855337617,0.003770762345700721,0.008890115137962437,-0.040213892249339134,0.8741197386262213
trans-Linalool oxide (furanoid),5989-33-3,1091.891349601951,1075,NIST,-0.10392966628677527,-0.5134358712619598,0.029308297251627653,-0.10473410757119084,-0.5112783745812873,0.030112689086079322
Undecanal,112-44-7,1309.9828237646175,1305,NIST,-0.003208960797010911,-0.037233909527921896,0.8833852206082096,0.005075459978135159,0.1645883570319261,0.5139933483677077
Vanillin,121-33-5,1407.9596464994997,1403,standard,2.2631399335402313e-4,0.04209946213493078,0.8682650135394712,-0.026095517948086972,-0.15722495443815282,0.5332482180307959