Compound,CAS,RI,RI_lab_lit,Source,density_rda_load,density_rda_corr,density_corr_pval,damage_rda_load,damage_rda_corr,damage_corr_pval
1-Hexanol,111-27-3,870.9515674357051,867,NIST,-0.023954585290467678,-0.10816442447245647,0.6692228518524879,-0.2091276315833721,-0.8436822208612967,1.0843046096332024e-5
2-Ethylhexanol,104-76-7,1030.9883263121026,1028,standard,-0.018382836658567357,-0.032047721703865564,0.8995440499576788,0.036898308604866856,0.21707477790480745,0.3869082217959521
1-Nonanol,143-08-8,1172.9135438660217,1171,standard,-0.10419509859397788,-0.5898020572816919,0.009986184604803756,-0.062181856500336946,-0.3730650287897968,0.12730389751509985
1-Octanol,111-87-5,1073.3104464806229,1070,standard,0.05350913901687652,0.32796609719205655,0.18396202775260068,-0.07353479667280183,-0.43945515643665406,0.06804133956273338
"1,2-Cyclooctanedione",3008-40-0,935.0949329445734,NA,NA,0.05380101862506756,0.17216503115151546,0.4945283558771111,-0.04275099372353527,-0.10985087165640606,0.6643492466971801
"1,2,4-Trimethylbenzene",95-63-6,996.6027066862383,989,NIST,0.02236544242488122,0.07691908268926123,0.7616145973682054,0.14715637400553852,0.4987364804327068,0.03513275270841633
"10,18-Bisnorabieta-8,11,13-triene",32624-67-2,2057.006511184251,NA,NA,-0.06814417854331234,-0.11376594336960509,0.653084763599238,-0.1483399887697871,-0.457844882970747,0.05605333852600668
10,NA,1162.5182617901976,NA,NA,0.059269286220091894,0.3546559051451144,0.14871259366198122,0.022524007865057018,0.27960660323273184,0.2611387103819643
9,NA,1149.1976356249643,NA,NA,0.013239033131201589,0.08227240724059634,0.745526158714119,-0.03270216974787457,-0.17352899383373077,0.49106249407890135
13,NA,1265.6203138733472,NA,NA,0.08046471315713502,0.4300728018291148,0.07484357901423351,-0.05196734766373004,-0.24371837830475787,0.32976903242226707
14,NA,1283.2569251392038,NA,NA,-0.07451365891909664,-0.34866615086975494,0.15618265620018437,-0.04983059433403927,-0.3710132139829371,0.12957612332736848
7,NA,1097.879732851976,NA,NA,0.07245591812219683,0.24309349415132497,0.3310494426843551,0.12831843879291768,0.3204170004561861,0.19486490705896775
12,NA,1213.2748331841333,NA,NA,-3.44919659788425e-4,0.091274175469211,0.7187004902280252,-0.12195760694438625,-0.2336442417447236,0.3507633357314023
2-Methyl-1H-pyrrole,636-41-9,843.1748178432935,NA,NA,-0.09399589107480452,-0.45466007993893637,0.05800653501113822,0.007298122219846773,-0.02024798489225471,0.9364398286637403
2,NA,959.4202474061507,NA,NA,0.09977272307137539,0.4935301881413347,0.03739622517214225,-0.0686566533283354,-0.12128269985667756,0.6316580726680869
3-Methyl-2-butenal,107-86-8,796.4958534777442,NA,NA,0.0019887900110274422,0.3546559051451145,0.14871259366198109,7.557965466967844e-4,0.27960660323273184,0.2611387103819643
2-Cyclohexen-1-ol,822-67-3,929.9758672237369,NA,NA,0.0510171436920475,0.28880633357773916,0.24510797946660765,0.04999261066356048,0.3109276165539895,0.20916529654898927
Cyclopentenone,930-30-3,838.2878224120003,802,NIST,0.09096697279486127,0.540252414209319,0.020636220584518264,-0.05078869030077146,-0.024987839329866826,0.9216002236300394
2-Hydroxycyclopent-2-en-1-one,10493-98-8,935.0949329445734,NA,NA,0.054311069131232605,0.1749835812242102,0.4873793792363511,-0.043054733784800646,-0.10830837595214166,0.668806356854309
"2-Cyclopentene-1,4-dione",930-60-9,893.4912040822451,880,NIST,-0.06063051447219348,-0.06461991110631382,0.7989219481606036,-0.0379583443618694,-0.1847385701109734,0.4630316454089447
Fufuryl alcohol,98-00-0,872.1629527944574,852,standard,0.11337107770588217,0.399746294592139,0.10026051484769172,0.002855590701317245,0.07671641575263259,0.7622255521283755
α-Hydroxy-ɣ-butyrolactone,19444-84-9,1003.9217028685194,NA,NA,-0.07914621378114202,-0.27010998091847144,0.27835663785059356,-0.015455510409036794,-0.06648527592182304,0.7932348619124945
p-Vinylguaiacol,7786-61-0,1319.977766919846,1309,Adams,0.01825620623790605,-0.047987680991307194,0.8500252317304489,-0.013125101824226396,-0.13597282007633685,0.5905922317478793
(E)-2-Octen-1-ol,18409-17-1,1071.1131711186301,1068,standard,0.05776797142295217,0.39852775753359565,0.10139685344743211,0.021726443778408835,0.03260075780304118,0.8978190308321389
Butyl methacrylate,97-88-1,989.8242780504065,NA,NA,-0.015961592145221682,5.10204647067016e-4,0.9983968921339239,0.010276879426969279,-0.032183228554174034,0.8991213397880313
1-Methylpyrrolidone,872-50-4,1048.627650231141,1043,NIST,0.04996142575088142,0.21227161901476288,0.39775528210958677,-0.04498391382191713,-0.1755694176963549,0.48589981472973265
2(5H)-Furanone,497-23-4,927.3170762217485,915,standard,0.023845932348865576,0.18261419646911928,0.468281124639781,-0.021748142034062414,-0.05669649948383279,0.8231829804676081
1,NA,766.5467589552458,NA,NA,0.0476217292579474,0.30347661204152376,0.22086250910937158,0.016715844060365023,0.1294382270757473,0.6087228949751144
3,NA,993.7958666432822,NA,NA,-0.18321468838913232,-0.755332049492614,2.895562640416826e-4,0.03088585105828873,0.046017676598972886,0.8561200553682234
Geranic oxide,7392-19-0,972.861015414079,971,NIST,-0.04218354980367912,-0.06649694921785944,0.7931993035312495,-0.02496970352109515,-0.03917483718346724,0.8773487016102836
Mesityl oxide,141-79-7,803.6346067462783,803,standard,-0.05731076942376037,-0.4495215943925002,0.06126480963516852,-0.06917427611311011,-0.4590546916132611,0.055324472349848254
Diendiol I,13741-21-4,1193.423680424124,1186,NIST,-0.18519148318395307,-0.6675949591304345,0.0024676293604765295,-0.17287962701383844,-0.6317518685768454,0.004917101346183345
4-Cyanocyclohexene,100-45-8,1020.8885122347104,NA,NA,-0.02232981105675709,-0.04069645709952347,0.8726207624819285,0.030189406376488436,0.14146816011354424,0.5755214437434384
4-Methylbiphenyl,644-08-6,1492.29102233128,NA,NA,0.006010888106680976,0.35465590514511436,0.14871259366198122,0.002284307769256784,0.27960660323273184,0.2611387103819643
8,NA,1115.110704145908,NA,NA,0.059269286220091894,0.3546559051451144,0.14871259366198122,0.022524007865057018,0.27960660323273184,0.2611387103819643
5-Methylfurfural,620-02-0,969.1424100382104,964,standard,-0.037308336822372,-0.1404832072573265,0.5782105426624524,0.005347136313095988,-0.14071103236671945,0.5775880650963314
Geranylacetone,3796-70-1,1457.3314418628422,1452,NIST,-0.012657243879965769,-0.1813451470434777,0.4714311613346769,0.011974591136752116,-0.22615647800882935,0.36685065646336246
4,NA,1071.3136538003841,NA,NA,0.055615213967229064,0.12828991123694436,0.6119319171807132,0.0020587594960337287,-0.10123573202190338,0.6893763175869735
5,NA,1085.3939653694124,NA,NA,0.0353608911999897,0.11419243957476748,0.6518618923580135,-0.00351767472984643,0.10617736845643864,0.6749813447635584
11,NA,1172.3730652996876,NA,NA,0.007668787282293631,0.14922975499408803,0.5545202211689874,0.01847678740483514,0.19254196498048065,0.4440059521383516
15,NA,1419.9493137029351,NA,NA,0.12124566795911225,0.3607659033913243,0.1413499646128066,0.08759454828032573,0.2686042453153424,0.2811491183680987
6,NA,1097.737440903986,NA,NA,0.0769996590224133,0.33043859971829576,0.18048158437084239,-0.07737241156766739,-0.2926773805239297,0.23855326834073415
Acetophenone,98-86-2,1069.8772403976586,1065,standard,-0.021885022336064267,-0.08396152508059256,0.7404702066482878,-0.0713574357354097,-0.16686969690082587,0.5080948576408906
α-Terpineol,98-55-5,1195.520482976227,1189,NIST,0.021817940046641456,-0.029048746377044025,0.9089056685486112,0.06268685228577801,0.2185899751178103,0.38352056838023263
Anthracene,120-12-7,1792.3901329928055,1775,NIST,0.059269286220091894,0.3546559051451144,0.14871259366198122,0.022524007865057018,0.27960660323273184,0.2611387103819643
Benzaldehyde,100-52-7,963.9837592876282,960,standard,0.02122784384779656,0.1350183893432865,0.5932263269898829,-0.038302336777995515,-0.2005314647614777,0.4249524885453726
Phenylacetaldehyde,122-78-1,1047.2326341626617,1046,standard,0.05069074160724498,0.15933451797104217,0.5276983954877353,-0.06599243451805577,-0.38991473256699816,0.1096938579570644
Benzoic acid,65-85-0,1176.3241567687987,1162,NIST,-0.05622535015962453,-0.3323639781382905,0.17780206585582603,-0.04488985850635668,-0.4527170715838837,0.05922293785563606
Coumaran,496-16-2,1226.9362883598903,1219,NIST,-0.13070612342579865,-0.47029061733725486,0.048891058958751774,-0.12010542982987822,-0.5215723455632413,0.026423621881792318
2-Ethylhexyl benzoate,5444-75-7,1717.6987859543078,NA,NA,-0.08832329990483731,-0.2255434373720019,0.3681858525010211,-0.11322195684480266,-0.322854689098125,0.19129858645467865
Ethyl 4-ethoxybenzoate,23676-09-7,1531.4272069068275,1537,NIST,-0.06540978166765822,-0.1723990657511781,0.4939328307645652,-0.08800697579093535,-0.2177676534598533,0.38535706272226866
Benzothiazole,95-16-9,1230.911709681091,1223,standard,-0.043601205558875256,-0.15778603981874942,0.5317695235167398,-0.13498662784245577,-0.574417729747581,0.012658299073203944
Benzyl alcohol,100-51-6,1040.2892440611104,1039,standard,-0.15510382157461952,-0.6598354164519591,0.0028862191644917373,-0.1855434224971861,-0.7585841793482043,2.6309692641484007e-4
Benzyl benzoate,120-51-4,1775.4642067372936,1762,NIST,-0.0256560711727309,-0.29425082739455555,0.23592123699864537,-0.04204811586567595,-0.40145339654778506,0.09868400869853988
Benzyl nitrile,140-29-4,1143.67904591752,1140,NIST,-0.06629050104575848,-0.49064751745103097,0.03869668971749049,-0.10345639816438397,-0.46855100712875764,0.04984813772087265
β-Pinene,127-91-3,979.6647169528324,977,standard,-0.05077108632473033,-0.3681237740596346,0.13282389978253184,0.050736425308706916,0.050612088715185376,0.8419184139711569
Nopinone,24903-95-5,1142.2882634836772,1120,NIST,-0.031001437201156563,0.004828006106467417,0.9848307960979251,-0.0630100313831916,-0.09104810616539598,0.7193705146574092
Butanoic acid,107-92-6,812.9762485377272,804,NIST,0.045211560541061506,0.3945521063562128,0.1051686306177558,-0.005179434780548894,0.150481592833144,0.5511650217950766
cis-3-Hexenyl butyrate,16491-36-4,1188.9671600954043,1186.4,NIST,-0.1848527134904468,-0.8171648099358755,3.475982237923778e-5,-0.18007777357445268,-0.6835911507740843,0.0017611049691490586
2-methyl-Butanoic acid,116-53-0,864.9937433041275,846,NIST,-0.05537210088274764,-0.021737287039630772,0.9317747300002808,0.007093968623685298,0.023467815730308705,0.9263566781205741
Butylated hydroxytoluene,128-37-0,1520.4094530395,1533.3,NIST,-0.09129774526714347,-0.4806498819218967,0.04347679285733323,-0.028061778517564025,-0.3180829616074247,0.1983205634020068
ɣ-Butyrolactone,96-48-0,925.5049899181078,904,Adams,0.09601718768234449,0.506844411502662,0.03181944268735328,-0.0040314400004947655,0.05133330545611965,0.8396931821836082
δ-Cadinene,483-76-1,1533.1344792810398,1521,NIST,-0.048445232840352896,-0.3648935491593906,0.13652154707052264,-6.616239351094398e-4,-0.23596411737510453,0.34586241555210706
ɣ-Cadinene,39029-41-9,1520.3188008525178,1511,NIST,-0.04421605978375877,-0.12146785379178192,0.631133709337828,-0.08929189357563837,-0.1823865023028097,0.468845531740534
Caprolactam,105-60-2,1259.0598532958777,NA,NA,0.05806160516110877,0.34671720288529734,0.1586676414900881,0.03723805747300003,0.27870504060354534,0.26274405557769004
(E)-Caryopyllene,118-65-0,1417.4894707077663,1404,NIST,0.059269286220091894,0.3546559051451144,0.14871259366198122,0.022524007865057018,0.27960660323273184,0.2611387103819643
Cedrene,469-61-4,1423.7217098521432,1406,NIST,0.059269286220091894,0.3546559051451144,0.14871259366198122,0.022524007865057018,0.27960660323273184,0.2611387103819643
Cedrol,77-53-2,1616.8910991999987,1605.8,NIST,0.059269286220091894,0.3546559051451144,0.14871259366198122,0.022524007865057018,0.27960660323273184,0.2611387103819643
cis-3-Hexenyl isovalerate,35154-45-1,1240.0010608066611,1238,NIST,-0.12297179616880548,-0.6446465799414398,0.0038747878049771984,-0.21304529408031847,-0.7840764010443898,1.175853129595553e-4
cis-Linalool oxide (furanoid),5989-33-3,1076.0433388877861,1075,NIST,-0.15847324670675486,-0.7125181466285779,9.061081538097035e-4,-0.11847192075018827,-0.5181866316567563,0.02759581309736383
Dihydroisophorone,873-94-9,1041.2506732909428,NA,NA,-0.019794968650274598,0.0053428597280332805,0.9832133728473365,-0.03313062806094727,-0.022754746215099392,0.928588842200717
Cyclopentanone,120-92-3,795.6856113996378,793,NIST,0.12459219333877118,0.47514440571296107,0.04629414306252217,0.10889621685382836,0.34309263274753204,0.1633606235695006
p-Cymenene,1195-32-0,1092.5492879205876,1089,Adams,-0.09393258513671814,-0.23411749009793098,0.34976035067403655,-0.007686474090837977,0.16238793690299735,0.5197128975627767
Decanal,112-31-2,1208.8074115327659,1206,standard,0.06312230376684176,0.5688452676890086,0.013756040008495313,0.0010753426214017898,0.07512817115647352,0.7670180417648625
Dodecanal,112-54-9,1412.1187110736207,1409,standard,0.0035754769207284975,0.3164478311981757,0.20076538763781215,-7.512935785130886e-4,0.15236846139462218,0.5461249030175747
Dodecanoic acid,143-07-7,1569.8197320275651,1570,NIST,-0.07255405027643233,-0.24737397578149958,0.32233672585169215,-0.1310694936238887,-0.44782666406617655,0.06236895392236938
1-Dodecanol,112-53-8,1477.632790600584,1473,standard,-0.04439797316742444,-0.020111528573531386,0.9368673659647866,0.0033897600704385984,0.012050291534094221,0.962149726863326
2-Phenoxyethanol,122-99-6,1226.9046182943364,1221,NIST,0.02398562820157167,0.21151720753400655,0.3994738676324363,0.057484430824075575,0.16739732807203336,0.506735228437782
Ethyl benzoate,93-89-0,1176.697615326415,1170,NIST,-0.04970966695930903,-0.256414595142105,0.304384138314939,-0.03910802914866428,-0.3154117805715925,0.20232470106819175
2-Ethylhexanoic acid,149-57-5,1124.337428124789,1124,standard,0.01638126778750621,0.24813812792155218,0.3207956744994495,-0.04327900537734833,0.0034981884003863046,0.9890086916007594
Phenylethane,100-41-4,862.5536111084825,859,standard,-0.05625678820300003,-0.16515910454968796,0.5125146501536941,-0.06942635271704749,-0.23081829299719123,0.3567867221783225
"(E,E)-α-Farnesene",502-61-4,1513.3057646153975,1506,NIST,-0.21570928751907026,-0.8137653028261376,3.982155859230506e-5,-0.024510599514045446,-0.1771837673902843,0.4818340599431391
Fokienol,33440-00-5,1602.466390576171,NA,NA,-0.08494925346239765,-0.380632741761056,0.11916515137623819,-0.0818008558428044,-0.2542900112666221,0.3085481083987992
"N,N-Dibutylformamide",761-65-9,1307.9330429244471,NA,NA,0.03915031241236889,0.11559560257172358,0.6478446473100201,-0.08966358445493257,-0.4630566799313839,0.052964099570743314
"N,N-Diethylformamide",617-84-5,947.1451659449685,NA,NA,0.059269286220091894,0.3546559051451144,0.14871259366198122,0.022524007865057018,0.27960660323273184,0.2611387103819643
Furfural,98-01-1,838.0072736284703,832,standard,-0.08229040677681654,-0.3054549377244848,0.21771639120292202,0.0347524343815744,0.0601512695388198,0.8125845808292691
ɣ-Nonalactone,104-61-0,1367.976315457677,1360,NIST,-0.12248417035008746,-0.5076100688408,0.03151950456584513,-0.12513673076695642,-0.5579530733175108,0.016119872222342534
Heptanal,111-71-7,904.2351548320224,902,standard,0.05907022516242776,0.3401930061793987,0.16718227869528846,-0.027915754604429518,-0.186080089661464,0.45973198121994974
Heptanoic acid,111-14-8,1082.8984136610284,1079,standard,0.10226097288330702,0.6211331596583611,0.005937525492816597,0.059103936932420977,0.34064913388145274,0.16657713122808
"2,6-Dimethyl-2-heptanol",13254-34-7,1002.0120132669828,NA,NA,0.04795880896589229,0.2679129801830629,0.2824368380070773,-0.11264585819311003,-0.37923143970504697,0.12064368002494284
1-Heptanol,111-70-6,973.0432103734754,970,standard,0.0486003441140867,0.43018513717279355,0.07475928484922516,0.031196242088784378,0.09090327285994701,0.7197998741158451
2-Heptanone,110-43-0,893.4851157304734,891,standard,0.09757142551604339,0.4293249505118566,0.07540653673890119,0.0024634298178149707,-0.05663907353013612,0.8233594008445285
Sulcatone,110-93-0,990.0021589754183,987,standard,-0.20154359511714606,-0.8036851336813579,5.868016980233492e-5,-0.06926358873592992,-0.25612118083963653,0.3049571868670578
1-Hexadecanol,36653-82-4,1883.5152672219645,1883,standard,-0.044603797557176236,-0.08896250109384841,0.7255609611902729,0.026192907661998326,0.04913320946503173,0.8464848761911057
Hexanal,66-25-1,802.9203450971295,801,standard,0.07213904520344895,0.3003859874065497,0.22583608832267132,-0.03901642716521475,-0.2890425749869896,0.2447047269631534
Hexanoic acid,142-62-1,990.398932205313,997,standard,0.08873808297320507,0.6151322829836036,0.006586181109573322,0.027561544642481717,0.21021759510638938,0.40244388000302245
(Z)-2-Hexenol,928-94-9,872.628062937025,NA,NA,-0.06089636743872872,-0.18311972967001036,0.46702922663956015,-0.17416638919197497,-0.6338567601156133,0.0047329039796079895
(E)-2-Hexenyl acetate,2497-18-9,1018.4275897458502,1015,NIST,-0.10559875744556908,-0.5915020787061647,0.009721118824326446,-0.07944425066095842,-0.46376304216636416,0.052555491359995786
(3Z)-Hexenyl acetate,3681-71-8,1009.6783437084754,1005,standard,-0.07570968793747175,-0.41973028186859945,0.08290828867242504,-0.013185985973611048,0.011897610108593464,0.9626289843407793
(3Z)-Hexenyl hexanoate,31501-11-8,1384.1560983587092,1379,NIST,-0.16856409753467896,-0.7697907471181945,1.869446423163062e-4,-0.19523671046365007,-0.8274211785941412,2.2669230436055612e-5
Homomenthyl salicylate,52253-93-7,1896.8235632713147,NA,NA,0.003791217711467995,0.35465590514511447,0.14871259366198114,0.0014407701357183008,0.27960660323273184,0.2611387103819643
Indole,120-72-9,1300.3784870909224,1305,standard,-0.14053386719519034,-0.6687804570514291,0.0024083249916300965,-0.09050024211479114,-0.5356266857848835,0.021966352803449555
Isopropyl hexadecanoate,142-91-6,2027.155322460528,1999,NIST,0.0027886443926546044,0.14278597703774598,0.571931934582535,0.017645313771958084,0.07525274499328252,0.7666418499337115
Isopropyl tetradecanoate,110-27-0,1828.4062850937607,1826,standard,-0.005856645842227455,-0.08228314062848849,0.745493999505676,-0.08674739844519591,-0.4379477393369999,0.06910207134242684
Isovaleric acid,503-74-2,856.5918061735251,849,standard,0.026371055106201764,0.2906206453659749,0.24202182062251806,0.1659992994773049,0.6336495825916418,0.004750780524360244
Levoglucosenone,37112-31-5,1118.1630389062339,NA,NA,-0.08919724289879134,-0.38617423522837924,0.11344372026948832,-0.11336367600217909,-0.3101572148100137,0.21035556890333634
Limonene,138-86-3,1031.1880422952702,1029,standard,-0.029750188913416912,-0.1610870358024242,0.5231082035653408,0.07168775627617127,0.24569974014134063,0.32572832853026334
Linalool,78-70-6,1102.4797223475111,1099,NIST,-0.11365710723168818,-0.47699677401467216,0.04533118338363892,0.03475059610559932,-0.01177589332084467,0.9630110544905441
cis-Linalool oxide (pyranoid),14009-71-3,1173.465121043978,1175,NIST,-0.17537057380439516,-0.7173187627734606,8.053821778836881e-4,-0.14905675195014428,-0.6164478943221788,0.00643927995655932
trans-Dehydroxylinalool oxide,54750-70-8,989.9740941121488,992,standard,-0.16721616090443098,-0.7411582976072206,4.3258103197571897e-4,-0.027802282060646867,-0.14607998561829394,0.563001922759776
Linalool oxide pyranoside,41720-62-1,1178.4492455070604,NA,NA,-0.059354162650258724,-0.21196857212177939,0.39844515352227705,-0.10908684749724422,-0.36487033027099985,0.1365483823962486
Longifolene,475-20-7,1417.534423484905,1412,NIST,0.059269286220091894,0.3546559051451144,0.14871259366198122,0.022524007865057018,0.27960660323273184,0.2611387103819643
Menthol,1490-04-6,1172.3246429029473,NA,NA,0.02735939791532576,0.14274565887167776,0.5720416117987505,0.16869963449882724,0.43906729189164784,0.06831310878326573
Methenamine,100-97-0,1234.200678780262,1220,NIST,-0.04200975324992563,-0.27415107968134506,0.270946707327214,-0.056546834540146945,-0.01237044191560381,0.9611448350436307
cis-Methyl dihydrojasmonate,39647-11-5,1660.63939400404,1655,standard,0.023883856345359444,0.06954549582503439,0.7839265109938841,0.1617493252495473,0.46877352356736535,0.049724932556502975